+ 0.5 0 1 cbr 50 ------- 2 0.0 2.0 0 0
- 0.5 0 1 cbr 50 ------- 2 0.0 2.0 0 0
+ 0.51 0 1 cbr 50 ------- 2 0.0 2.0 1 1
- 0.51 0 1 cbr 50 ------- 2 0.0 2.0 1 1
+ 0.52 0 1 cbr 50 ------- 2 0.0 2.0 2 2
- 0.52 0 1 cbr 50 ------- 2 0.0 2.0 2 2
+ 0.53 0 1 cbr 50 ------- 2 0.0 2.0 3 3
- 0.53 0 1 cbr 50 ------- 2 0.0 2.0 3 3
+ 0.54 0 1 cbr 50 ------- 2 0.0 2.0 4 4
- 0.54 0 1 cbr 50 ------- 2 0.0 2.0 4 4
+ 0.55 0 1 cbr 50 ------- 2 0.0 2.0 5 5
- 0.55 0 1 cbr 50 ------- 2 0.0 2.0 5 5
r 0.5504 0 1 cbr 50 ------- 2 0.0 2.0 0 0
+ 0.5504 1 2 cbr 50 ------- 2 0.0 2.0 0 0
- 0.5504 1 2 cbr 50 ------- 2 0.0 2.0 0 0
r 0.5594 1 2 cbr 50 ------- 2 0.0 2.0 0 0
+ 0.56 0 1 cbr 50 ------- 2 0.0 2.0 6 6
- 0.56 0 1 cbr 50 ------- 2 0.0 2.0 6 6
r 0.5604 0 1 cbr 50 ------- 2 0.0 2.0 1 1
+ 0.5604 1 2 cbr 50 ------- 2 0.0 2.0 1 1
- 0.5604 1 2 cbr 50 ------- 2 0.0 2.0 1 1
r 0.5694 1 2 cbr 50 ------- 2 0.0 2.0 1 1
+ 0.57 0 1 cbr 50 ------- 2 0.0 2.0 7 7
- 0.57 0 1 cbr 50 ------- 2 0.0 2.0 7 7
r 0.5704 0 1 cbr 50 ------- 2 0.0 2.0 2 2
+ 0.5704 1 2 cbr 50 ------- 2 0.0 2.0 2 2
- 0.5704 1 2 cbr 50 ------- 2 0.0 2.0 2 2
r 0.5794 1 2 cbr 50 ------- 2 0.0 2.0 2 2
+ 0.58 0 1 cbr 50 ------- 2 0.0 2.0 8 8
- 0.58 0 1 cbr 50 ------- 2 0.0 2.0 8 8
r 0.5804 0 1 cbr 50 ------- 2 0.0 2.0 3 3
+ 0.5804 1 2 cbr 50 ------- 2 0.0 2.0 3 3
- 0.5804 1 2 cbr 50 ------- 2 0.0 2.0 3 3
r 0.5894 1 2 cbr 50 ------- 2 0.0 2.0 3 3
+ 0.59 0 1 cbr 50 ------- 2 0.0 2.0 9 9
- 0.59 0 1 cbr 50 ------- 2 0.0 2.0 9 9
r 0.5904 0 1 cbr 50 ------- 2 0.0 2.0 4 4
+ 0.5904 1 2 cbr 50 ------- 2 0.0 2.0 4 4
- 0.5904 1 2 cbr 50 ------- 2 0.0 2.0 4 4
r 0.5994 1 2 cbr 50 ------- 2 0.0 2.0 4 4
+ 0.6 0 1 cbr 50 ------- 2 0.0 2.0 10 10
- 0.6 0 1 cbr 50 ------- 2 0.0 2.0 10 10
r 0.6004 0 1 cbr 50 ------- 2 0.0 2.0 5 5
+ 0.6004 1 2 cbr 50 ------- 2 0.0 2.0 5 5
- 0.6004 1 2 cbr 50 ------- 2 0.0 2.0 5 5
r 0.6094 1 2 cbr 50 ------- 2 0.0 2.0 5 5
+ 0.61 0 1 cbr 50 ------- 2 0.0 2.0 11 11
- 0.61 0 1 cbr 50 ------- 2 0.0 2.0 11 11
r 0.6104 0 1 cbr 50 ------- 2 0.0 2.0 6 6
+ 0.6104 1 2 cbr 50 ------- 2 0.0 2.0 6 6
- 0.6104 1 2 cbr 50 ------- 2 0.0 2.0 6 6
r 0.6194 1 2 cbr 50 ------- 2 0.0 2.0 6 6
+ 0.62 0 1 cbr 50 ------- 2 0.0 2.0 12 12
- 0.62 0 1 cbr 50 ------- 2 0.0 2.0 12 12
r 0.6204 0 1 cbr 50 ------- 2 0.0 2.0 7 7
+ 0.6204 1 2 cbr 50 ------- 2 0.0 2.0 7 7
- 0.6204 1 2 cbr 50 ------- 2 0.0 2.0 7 7
r 0.6294 1 2 cbr 50 ------- 2 0.0 2.0 7 7
+ 0.63 0 1 cbr 50 ------- 2 0.0 2.0 13 13
- 0.63 0 1 cbr 50 ------- 2 0.0 2.0 13 13
r 0.6304 0 1 cbr 50 ------- 2 0.0 2.0 8 8
+ 0.6304 1 2 cbr 50 ------- 2 0.0 2.0 8 8
- 0.6304 1 2 cbr 50 ------- 2 0.0 2.0 8 8
r 0.6394 1 2 cbr 50 ------- 2 0.0 2.0 8 8
+ 0.64 0 1 cbr 50 ------- 2 0.0 2.0 14 14
- 0.64 0 1 cbr 50 ------- 2 0.0 2.0 14 14
r 0.6404 0 1 cbr 50 ------- 2 0.0 2.0 9 9
+ 0.6404 1 2 cbr 50 ------- 2 0.0 2.0 9 9
- 0.6404 1 2 cbr 50 ------- 2 0.0 2.0 9 9
r 0.6494 1 2 cbr 50 ------- 2 0.0 2.0 9 9
+ 0.65 0 1 cbr 50 ------- 2 0.0 2.0 15 15
- 0.65 0 1 cbr 50 ------- 2 0.0 2.0 15 15
r 0.6504 0 1 cbr 50 ------- 2 0.0 2.0 10 10
+ 0.6504 1 2 cbr 50 ------- 2 0.0 2.0 10 10
- 0.6504 1 2 cbr 50 ------- 2 0.0 2.0 10 10
r 0.6594 1 2 cbr 50 ------- 2 0.0 2.0 10 10
+ 0.66 0 1 cbr 50 ------- 2 0.0 2.0 16 16
- 0.66 0 1 cbr 50 ------- 2 0.0 2.0 16 16
r 0.6604 0 1 cbr 50 ------- 2 0.0 2.0 11 11
+ 0.6604 1 2 cbr 50 ------- 2 0.0 2.0 11 11
- 0.6604 1 2 cbr 50 ------- 2 0.0 2.0 11 11
r 0.6694 1 2 cbr 50 ------- 2 0.0 2.0 11 11
+ 0.67 0 1 cbr 50 ------- 2 0.0 2.0 17 17
- 0.67 0 1 cbr 50 ------- 2 0.0 2.0 17 17
r 0.6704 0 1 cbr 50 ------- 2 0.0 2.0 12 12
+ 0.6704 1 2 cbr 50 ------- 2 0.0 2.0 12 12
- 0.6704 1 2 cbr 50 ------- 2 0.0 2.0 12 12
r 0.6794 1 2 cbr 50 ------- 2 0.0 2.0 12 12
+ 0.68 0 1 cbr 50 ------- 2 0.0 2.0 18 18
- 0.68 0 1 cbr 50 ------- 2 0.0 2.0 18 18
r 0.6804 0 1 cbr 50 ------- 2 0.0 2.0 13 13
+ 0.6804 1 2 cbr 50 ------- 2 0.0 2.0 13 13
- 0.6804 1 2 cbr 50 ------- 2 0.0 2.0 13 13
r 0.6894 1 2 cbr 50 ------- 2 0.0 2.0 13 13
+ 0.69 0 1 cbr 50 ------- 2 0.0 2.0 19 19
- 0.69 0 1 cbr 50 ------- 2 0.0 2.0 19 19
r 0.6904 0 1 cbr 50 ------- 2 0.0 2.0 14 14
+ 0.6904 1 2 cbr 50 ------- 2 0.0 2.0 14 14
- 0.6904 1 2 cbr 50 ------- 2 0.0 2.0 14 14
r 0.6994 1 2 cbr 50 ------- 2 0.0 2.0 14 14
+ 0.7 0 1 cbr 50 ------- 2 0.0 2.0 20 20
- 0.7 0 1 cbr 50 ------- 2 0.0 2.0 20 20
r 0.7004 0 1 cbr 50 ------- 2 0.0 2.0 15 15
+ 0.7004 1 2 cbr 50 ------- 2 0.0 2.0 15 15
- 0.7004 1 2 cbr 50 ------- 2 0.0 2.0 15 15
r 0.7094 1 2 cbr 50 ------- 2 0.0 2.0 15 15
+ 0.71 0 1 cbr 50 ------- 2 0.0 2.0 21 21
- 0.71 0 1 cbr 50 ------- 2 0.0 2.0 21 21
r 0.7104 0 1 cbr 50 ------- 2 0.0 2.0 16 16
+ 0.7104 1 2 cbr 50 ------- 2 0.0 2.0 16 16
- 0.7104 1 2 cbr 50 ------- 2 0.0 2.0 16 16
r 0.7194 1 2 cbr 50 ------- 2 0.0 2.0 16 16
+ 0.72 0 1 cbr 50 ------- 2 0.0 2.0 22 22
- 0.72 0 1 cbr 50 ------- 2 0.0 2.0 22 22
r 0.7204 0 1 cbr 50 ------- 2 0.0 2.0 17 17
+ 0.7204 1 2 cbr 50 ------- 2 0.0 2.0 17 17
- 0.7204 1 2 cbr 50 ------- 2 0.0 2.0 17 17
r 0.7294 1 2 cbr 50 ------- 2 0.0 2.0 17 17
+ 0.73 0 1 cbr 50 ------- 2 0.0 2.0 23 23
- 0.73 0 1 cbr 50 ------- 2 0.0 2.0 23 23
r 0.7304 0 1 cbr 50 ------- 2 0.0 2.0 18 18
+ 0.7304 1 2 cbr 50 ------- 2 0.0 2.0 18 18
- 0.7304 1 2 cbr 50 ------- 2 0.0 2.0 18 18
r 0.7394 1 2 cbr 50 ------- 2 0.0 2.0 18 18
+ 0.74 0 1 cbr 50 ------- 2 0.0 2.0 24 24
- 0.74 0 1 cbr 50 ------- 2 0.0 2.0 24 24
r 0.7404 0 1 cbr 50 ------- 2 0.0 2.0 19 19
+ 0.7404 1 2 cbr 50 ------- 2 0.0 2.0 19 19
- 0.7404 1 2 cbr 50 ------- 2 0.0 2.0 19 19
r 0.7494 1 2 cbr 50 ------- 2 0.0 2.0 19 19
+ 0.75 0 1 cbr 50 ------- 2 0.0 2.0 25 25
- 0.75 0 1 cbr 50 ------- 2 0.0 2.0 25 25
r 0.7504 0 1 cbr 50 ------- 2 0.0 2.0 20 20
+ 0.7504 1 2 cbr 50 ------- 2 0.0 2.0 20 20
- 0.7504 1 2 cbr 50 ------- 2 0.0 2.0 20 20
r 0.7594 1 2 cbr 50 ------- 2 0.0 2.0 20 20
+ 0.76 0 1 cbr 50 ------- 2 0.0 2.0 26 26
- 0.76 0 1 cbr 50 ------- 2 0.0 2.0 26 26
r 0.7604 0 1 cbr 50 ------- 2 0.0 2.0 21 21
+ 0.7604 1 2 cbr 50 ------- 2 0.0 2.0 21 21
- 0.7604 1 2 cbr 50 ------- 2 0.0 2.0 21 21
r 0.7694 1 2 cbr 50 ------- 2 0.0 2.0 21 21
+ 0.77 0 1 cbr 50 ------- 2 0.0 2.0 27 27
- 0.77 0 1 cbr 50 ------- 2 0.0 2.0 27 27
r 0.7704 0 1 cbr 50 ------- 2 0.0 2.0 22 22
+ 0.7704 1 2 cbr 50 ------- 2 0.0 2.0 22 22
- 0.7704 1 2 cbr 50 ------- 2 0.0 2.0 22 22
r 0.7794 1 2 cbr 50 ------- 2 0.0 2.0 22 22
+ 0.78 0 1 cbr 50 ------- 2 0.0 2.0 28 28
- 0.78 0 1 cbr 50 ------- 2 0.0 2.0 28 28
r 0.7804 0 1 cbr 50 ------- 2 0.0 2.0 23 23
+ 0.7804 1 2 cbr 50 ------- 2 0.0 2.0 23 23
- 0.7804 1 2 cbr 50 ------- 2 0.0 2.0 23 23
r 0.7894 1 2 cbr 50 ------- 2 0.0 2.0 23 23
+ 0.79 0 1 cbr 50 ------- 2 0.0 2.0 29 29
- 0.79 0 1 cbr 50 ------- 2 0.0 2.0 29 29
r 0.7904 0 1 cbr 50 ------- 2 0.0 2.0 24 24
+ 0.7904 1 2 cbr 50 ------- 2 0.0 2.0 24 24
- 0.7904 1 2 cbr 50 ------- 2 0.0 2.0 24 24
r 0.7994 1 2 cbr 50 ------- 2 0.0 2.0 24 24
+ 0.8 0 1 cbr 50 ------- 2 0.0 2.0 30 30
- 0.8 0 1 cbr 50 ------- 2 0.0 2.0 30 30
r 0.8004 0 1 cbr 50 ------- 2 0.0 2.0 25 25
+ 0.8004 1 2 cbr 50 ------- 2 0.0 2.0 25 25
- 0.8004 1 2 cbr 50 ------- 2 0.0 2.0 25 25
r 0.8094 1 2 cbr 50 ------- 2 0.0 2.0 25 25
+ 0.81 0 1 cbr 50 ------- 2 0.0 2.0 31 31
- 0.81 0 1 cbr 50 ------- 2 0.0 2.0 31 31
r 0.8104 0 1 cbr 50 ------- 2 0.0 2.0 26 26
+ 0.8104 1 2 cbr 50 ------- 2 0.0 2.0 26 26
- 0.8104 1 2 cbr 50 ------- 2 0.0 2.0 26 26
r 0.8194 1 2 cbr 50 ------- 2 0.0 2.0 26 26
+ 0.82 0 1 cbr 50 ------- 2 0.0 2.0 32 32
- 0.82 0 1 cbr 50 ------- 2 0.0 2.0 32 32
r 0.8204 0 1 cbr 50 ------- 2 0.0 2.0 27 27
+ 0.8204 1 2 cbr 50 ------- 2 0.0 2.0 27 27
- 0.8204 1 2 cbr 50 ------- 2 0.0 2.0 27 27
r 0.8294 1 2 cbr 50 ------- 2 0.0 2.0 27 27
+ 0.83 0 1 cbr 50 ------- 2 0.0 2.0 33 33
- 0.83 0 1 cbr 50 ------- 2 0.0 2.0 33 33
r 0.8304 0 1 cbr 50 ------- 2 0.0 2.0 28 28
+ 0.8304 1 2 cbr 50 ------- 2 0.0 2.0 28 28
- 0.8304 1 2 cbr 50 ------- 2 0.0 2.0 28 28
r 0.8394 1 2 cbr 50 ------- 2 0.0 2.0 28 28
+ 0.84 0 1 cbr 50 ------- 2 0.0 2.0 34 34
- 0.84 0 1 cbr 50 ------- 2 0.0 2.0 34 34
r 0.8404 0 1 cbr 50 ------- 2 0.0 2.0 29 29
+ 0.8404 1 2 cbr 50 ------- 2 0.0 2.0 29 29
- 0.8404 1 2 cbr 50 ------- 2 0.0 2.0 29 29
r 0.8494 1 2 cbr 50 ------- 2 0.0 2.0 29 29
+ 0.85 0 1 cbr 50 ------- 2 0.0 2.0 35 35
- 0.85 0 1 cbr 50 ------- 2 0.0 2.0 35 35
r 0.8504 0 1 cbr 50 ------- 2 0.0 2.0 30 30
+ 0.8504 1 2 cbr 50 ------- 2 0.0 2.0 30 30
- 0.8504 1 2 cbr 50 ------- 2 0.0 2.0 30 30
r 0.8594 1 2 cbr 50 ------- 2 0.0 2.0 30 30
+ 0.86 0 1 cbr 50 ------- 2 0.0 2.0 36 36
- 0.86 0 1 cbr 50 ------- 2 0.0 2.0 36 36
r 0.8604 0 1 cbr 50 ------- 2 0.0 2.0 31 31
+ 0.8604 1 2 cbr 50 ------- 2 0.0 2.0 31 31
- 0.8604 1 2 cbr 50 ------- 2 0.0 2.0 31 31
r 0.8694 1 2 cbr 50 ------- 2 0.0 2.0 31 31
+ 0.87 0 1 cbr 50 ------- 2 0.0 2.0 37 37
- 0.87 0 1 cbr 50 ------- 2 0.0 2.0 37 37
r 0.8704 0 1 cbr 50 ------- 2 0.0 2.0 32 32
+ 0.8704 1 2 cbr 50 ------- 2 0.0 2.0 32 32
- 0.8704 1 2 cbr 50 ------- 2 0.0 2.0 32 32
r 0.8794 1 2 cbr 50 ------- 2 0.0 2.0 32 32
+ 0.88 0 1 cbr 50 ------- 2 0.0 2.0 38 38
- 0.88 0 1 cbr 50 ------- 2 0.0 2.0 38 38
r 0.8804 0 1 cbr 50 ------- 2 0.0 2.0 33 33
+ 0.8804 1 2 cbr 50 ------- 2 0.0 2.0 33 33
- 0.8804 1 2 cbr 50 ------- 2 0.0 2.0 33 33
r 0.8894 1 2 cbr 50 ------- 2 0.0 2.0 33 33
+ 0.89 0 1 cbr 50 ------- 2 0.0 2.0 39 39
- 0.89 0 1 cbr 50 ------- 2 0.0 2.0 39 39
r 0.8904 0 1 cbr 50 ------- 2 0.0 2.0 34 34
+ 0.8904 1 2 cbr 50 ------- 2 0.0 2.0 34 34
- 0.8904 1 2 cbr 50 ------- 2 0.0 2.0 34 34
r 0.8994 1 2 cbr 50 ------- 2 0.0 2.0 34 34
+ 0.9 0 1 cbr 50 ------- 2 0.0 2.0 40 40
- 0.9 0 1 cbr 50 ------- 2 0.0 2.0 40 40
r 0.9004 0 1 cbr 50 ------- 2 0.0 2.0 35 35
+ 0.9004 1 2 cbr 50 ------- 2 0.0 2.0 35 35
- 0.9004 1 2 cbr 50 ------- 2 0.0 2.0 35 35
r 0.9094 1 2 cbr 50 ------- 2 0.0 2.0 35 35
+ 0.91 0 1 cbr 50 ------- 2 0.0 2.0 41 41
- 0.91 0 1 cbr 50 ------- 2 0.0 2.0 41 41
r 0.9104 0 1 cbr 50 ------- 2 0.0 2.0 36 36
+ 0.9104 1 2 cbr 50 ------- 2 0.0 2.0 36 36
- 0.9104 1 2 cbr 50 ------- 2 0.0 2.0 36 36
r 0.9194 1 2 cbr 50 ------- 2 0.0 2.0 36 36
+ 0.92 0 1 cbr 50 ------- 2 0.0 2.0 42 42
- 0.92 0 1 cbr 50 ------- 2 0.0 2.0 42 42
r 0.9204 0 1 cbr 50 ------- 2 0.0 2.0 37 37
+ 0.9204 1 2 cbr 50 ------- 2 0.0 2.0 37 37
- 0.9204 1 2 cbr 50 ------- 2 0.0 2.0 37 37
r 0.9294 1 2 cbr 50 ------- 2 0.0 2.0 37 37
+ 0.93 0 1 cbr 50 ------- 2 0.0 2.0 43 43
- 0.93 0 1 cbr 50 ------- 2 0.0 2.0 43 43
r 0.9304 0 1 cbr 50 ------- 2 0.0 2.0 38 38
+ 0.9304 1 2 cbr 50 ------- 2 0.0 2.0 38 38
- 0.9304 1 2 cbr 50 ------- 2 0.0 2.0 38 38
r 0.9394 1 2 cbr 50 ------- 2 0.0 2.0 38 38
+ 0.94 0 1 cbr 50 ------- 2 0.0 2.0 44 44
- 0.94 0 1 cbr 50 ------- 2 0.0 2.0 44 44
r 0.9404 0 1 cbr 50 ------- 2 0.0 2.0 39 39
+ 0.9404 1 2 cbr 50 ------- 2 0.0 2.0 39 39
- 0.9404 1 2 cbr 50 ------- 2 0.0 2.0 39 39
r 0.9494 1 2 cbr 50 ------- 2 0.0 2.0 39 39
+ 0.95 0 1 cbr 50 ------- 2 0.0 2.0 45 45
- 0.95 0 1 cbr 50 ------- 2 0.0 2.0 45 45
r 0.9504 0 1 cbr 50 ------- 2 0.0 2.0 40 40
+ 0.9504 1 2 cbr 50 ------- 2 0.0 2.0 40 40
- 0.9504 1 2 cbr 50 ------- 2 0.0 2.0 40 40
r 0.9594 1 2 cbr 50 ------- 2 0.0 2.0 40 40
+ 0.96 0 1 cbr 50 ------- 2 0.0 2.0 46 46
- 0.96 0 1 cbr 50 ------- 2 0.0 2.0 46 46
r 0.9604 0 1 cbr 50 ------- 2 0.0 2.0 41 41
+ 0.9604 1 2 cbr 50 ------- 2 0.0 2.0 41 41
- 0.9604 1 2 cbr 50 ------- 2 0.0 2.0 41 41
r 0.9694 1 2 cbr 50 ------- 2 0.0 2.0 41 41
+ 0.97 0 1 cbr 50 ------- 2 0.0 2.0 47 47
- 0.97 0 1 cbr 50 ------- 2 0.0 2.0 47 47
r 0.9704 0 1 cbr 50 ------- 2 0.0 2.0 42 42
+ 0.9704 1 2 cbr 50 ------- 2 0.0 2.0 42 42
- 0.9704 1 2 cbr 50 ------- 2 0.0 2.0 42 42
r 0.9794 1 2 cbr 50 ------- 2 0.0 2.0 42 42
+ 0.98 0 1 cbr 50 ------- 2 0.0 2.0 48 48
- 0.98 0 1 cbr 50 ------- 2 0.0 2.0 48 48
r 0.9804 0 1 cbr 50 ------- 2 0.0 2.0 43 43
+ 0.9804 1 2 cbr 50 ------- 2 0.0 2.0 43 43
- 0.9804 1 2 cbr 50 ------- 2 0.0 2.0 43 43
r 0.9894 1 2 cbr 50 ------- 2 0.0 2.0 43 43
+ 0.99 0 1 cbr 50 ------- 2 0.0 2.0 49 49
- 0.99 0 1 cbr 50 ------- 2 0.0 2.0 49 49
r 0.9904 0 1 cbr 50 ------- 2 0.0 2.0 44 44
+ 0.9904 1 2 cbr 50 ------- 2 0.0 2.0 44 44
- 0.9904 1 2 cbr 50 ------- 2 0.0 2.0 44 44
r 0.9994 1 2 cbr 50 ------- 2 0.0 2.0 44 44
+ 1 0 1 cbr 50 ------- 2 0.0 2.0 50 50
- 1 0 1 cbr 50 ------- 2 0.0 2.0 50 50
r 1.0004 0 1 cbr 50 ------- 2 0.0 2.0 45 45
+ 1.0004 1 2 cbr 50 ------- 2 0.0 2.0 45 45
- 1.0004 1 2 cbr 50 ------- 2 0.0 2.0 45 45
r 1.0094 1 2 cbr 50 ------- 2 0.0 2.0 45 45
+ 1.01 0 1 cbr 50 ------- 2 0.0 2.0 51 51
- 1.01 0 1 cbr 50 ------- 2 0.0 2.0 51 51
r 1.0104 0 1 cbr 50 ------- 2 0.0 2.0 46 46
+ 1.0104 1 2 cbr 50 ------- 2 0.0 2.0 46 46
- 1.0104 1 2 cbr 50 ------- 2 0.0 2.0 46 46
r 1.0194 1 2 cbr 50 ------- 2 0.0 2.0 46 46
+ 1.02 0 1 cbr 50 ------- 2 0.0 2.0 52 52
- 1.02 0 1 cbr 50 ------- 2 0.0 2.0 52 52
r 1.0204 0 1 cbr 50 ------- 2 0.0 2.0 47 47
+ 1.0204 1 2 cbr 50 ------- 2 0.0 2.0 47 47
- 1.0204 1 2 cbr 50 ------- 2 0.0 2.0 47 47
r 1.0294 1 2 cbr 50 ------- 2 0.0 2.0 47 47
+ 1.03 0 1 cbr 50 ------- 2 0.0 2.0 53 53
- 1.03 0 1 cbr 50 ------- 2 0.0 2.0 53 53
r 1.0304 0 1 cbr 50 ------- 2 0.0 2.0 48 48
+ 1.0304 1 2 cbr 50 ------- 2 0.0 2.0 48 48
- 1.0304 1 2 cbr 50 ------- 2 0.0 2.0 48 48
r 1.0394 1 2 cbr 50 ------- 2 0.0 2.0 48 48
+ 1.04 0 1 cbr 50 ------- 2 0.0 2.0 54 54
- 1.04 0 1 cbr 50 ------- 2 0.0 2.0 54 54
r 1.0404 0 1 cbr 50 ------- 2 0.0 2.0 49 49
+ 1.0404 1 2 cbr 50 ------- 2 0.0 2.0 49 49
- 1.0404 1 2 cbr 50 ------- 2 0.0 2.0 49 49
r 1.0494 1 2 cbr 50 ------- 2 0.0 2.0 49 49
+ 1.05 0 1 cbr 50 ------- 2 0.0 2.0 55 55
- 1.05 0 1 cbr 50 ------- 2 0.0 2.0 55 55
r 1.0504 0 1 cbr 50 ------- 2 0.0 2.0 50 50
+ 1.0504 1 2 cbr 50 ------- 2 0.0 2.0 50 50
- 1.0504 1 2 cbr 50 ------- 2 0.0 2.0 50 50
r 1.0594 1 2 cbr 50 ------- 2 0.0 2.0 50 50
+ 1.06 0 1 cbr 50 ------- 2 0.0 2.0 56 56
- 1.06 0 1 cbr 50 ------- 2 0.0 2.0 56 56
r 1.0604 0 1 cbr 50 ------- 2 0.0 2.0 51 51
+ 1.0604 1 2 cbr 50 ------- 2 0.0 2.0 51 51
- 1.0604 1 2 cbr 50 ------- 2 0.0 2.0 51 51
r 1.0694 1 2 cbr 50 ------- 2 0.0 2.0 51 51
+ 1.07 0 1 cbr 50 ------- 2 0.0 2.0 57 57
- 1.07 0 1 cbr 50 ------- 2 0.0 2.0 57 57
r 1.0704 0 1 cbr 50 ------- 2 0.0 2.0 52 52
+ 1.0704 1 2 cbr 50 ------- 2 0.0 2.0 52 52
- 1.0704 1 2 cbr 50 ------- 2 0.0 2.0 52 52
r 1.0794 1 2 cbr 50 ------- 2 0.0 2.0 52 52
+ 1.08 0 1 cbr 50 ------- 2 0.0 2.0 58 58
- 1.08 0 1 cbr 50 ------- 2 0.0 2.0 58 58
r 1.0804 0 1 cbr 50 ------- 2 0.0 2.0 53 53
+ 1.0804 1 2 cbr 50 ------- 2 0.0 2.0 53 53
- 1.0804 1 2 cbr 50 ------- 2 0.0 2.0 53 53
r 1.0894 1 2 cbr 50 ------- 2 0.0 2.0 53 53
+ 1.09 0 1 cbr 50 ------- 2 0.0 2.0 59 59
- 1.09 0 1 cbr 50 ------- 2 0.0 2.0 59 59
r 1.0904 0 1 cbr 50 ------- 2 0.0 2.0 54 54
+ 1.0904 1 2 cbr 50 ------- 2 0.0 2.0 54 54
- 1.0904 1 2 cbr 50 ------- 2 0.0 2.0 54 54
r 1.0994 1 2 cbr 50 ------- 2 0.0 2.0 54 54
+ 1.1 0 1 cbr 50 ------- 2 0.0 2.0 60 60
- 1.1 0 1 cbr 50 ------- 2 0.0 2.0 60 60
r 1.1004 0 1 cbr 50 ------- 2 0.0 2.0 55 55
+ 1.1004 1 2 cbr 50 ------- 2 0.0 2.0 55 55
- 1.1004 1 2 cbr 50 ------- 2 0.0 2.0 55 55
r 1.1094 1 2 cbr 50 ------- 2 0.0 2.0 55 55
+ 1.11 0 1 cbr 50 ------- 2 0.0 2.0 61 61
- 1.11 0 1 cbr 50 ------- 2 0.0 2.0 61 61
r 1.1104 0 1 cbr 50 ------- 2 0.0 2.0 56 56
+ 1.1104 1 2 cbr 50 ------- 2 0.0 2.0 56 56
- 1.1104 1 2 cbr 50 ------- 2 0.0 2.0 56 56
r 1.1194 1 2 cbr 50 ------- 2 0.0 2.0 56 56
+ 1.12 0 1 cbr 50 ------- 2 0.0 2.0 62 62
- 1.12 0 1 cbr 50 ------- 2 0.0 2.0 62 62
r 1.1204 0 1 cbr 50 ------- 2 0.0 2.0 57 57
+ 1.1204 1 2 cbr 50 ------- 2 0.0 2.0 57 57
- 1.1204 1 2 cbr 50 ------- 2 0.0 2.0 57 57
r 1.1294 1 2 cbr 50 ------- 2 0.0 2.0 57 57
+ 1.13 0 1 cbr 50 ------- 2 0.0 2.0 63 63
- 1.13 0 1 cbr 50 ------- 2 0.0 2.0 63 63
r 1.1304 0 1 cbr 50 ------- 2 0.0 2.0 58 58
+ 1.1304 1 2 cbr 50 ------- 2 0.0 2.0 58 58
- 1.1304 1 2 cbr 50 ------- 2 0.0 2.0 58 58
r 1.1394 1 2 cbr 50 ------- 2 0.0 2.0 58 58
+ 1.14 0 1 cbr 50 ------- 2 0.0 2.0 64 64
- 1.14 0 1 cbr 50 ------- 2 0.0 2.0 64 64
r 1.1404 0 1 cbr 50 ------- 2 0.0 2.0 59 59
+ 1.1404 1 2 cbr 50 ------- 2 0.0 2.0 59 59
- 1.1404 1 2 cbr 50 ------- 2 0.0 2.0 59 59
r 1.1494 1 2 cbr 50 ------- 2 0.0 2.0 59 59
+ 1.15 0 1 cbr 50 ------- 2 0.0 2.0 65 65
- 1.15 0 1 cbr 50 ------- 2 0.0 2.0 65 65
r 1.1504 0 1 cbr 50 ------- 2 0.0 2.0 60 60
+ 1.1504 1 2 cbr 50 ------- 2 0.0 2.0 60 60
- 1.1504 1 2 cbr 50 ------- 2 0.0 2.0 60 60
r 1.1594 1 2 cbr 50 ------- 2 0.0 2.0 60 60
+ 1.16 0 1 cbr 50 ------- 2 0.0 2.0 66 66
- 1.16 0 1 cbr 50 ------- 2 0.0 2.0 66 66
r 1.1604 0 1 cbr 50 ------- 2 0.0 2.0 61 61
+ 1.1604 1 2 cbr 50 ------- 2 0.0 2.0 61 61
- 1.1604 1 2 cbr 50 ------- 2 0.0 2.0 61 61
r 1.1694 1 2 cbr 50 ------- 2 0.0 2.0 61 61
+ 1.17 0 1 cbr 50 ------- 2 0.0 2.0 67 67
- 1.17 0 1 cbr 50 ------- 2 0.0 2.0 67 67
r 1.1704 0 1 cbr 50 ------- 2 0.0 2.0 62 62
+ 1.1704 1 2 cbr 50 ------- 2 0.0 2.0 62 62
- 1.1704 1 2 cbr 50 ------- 2 0.0 2.0 62 62
r 1.1794 1 2 cbr 50 ------- 2 0.0 2.0 62 62
+ 1.18 0 1 cbr 50 ------- 2 0.0 2.0 68 68
- 1.18 0 1 cbr 50 ------- 2 0.0 2.0 68 68
r 1.1804 0 1 cbr 50 ------- 2 0.0 2.0 63 63
+ 1.1804 1 2 cbr 50 ------- 2 0.0 2.0 63 63
- 1.1804 1 2 cbr 50 ------- 2 0.0 2.0 63 63
r 1.1894 1 2 cbr 50 ------- 2 0.0 2.0 63 63
+ 1.19 0 1 cbr 50 ------- 2 0.0 2.0 69 69
- 1.19 0 1 cbr 50 ------- 2 0.0 2.0 69 69
r 1.1904 0 1 cbr 50 ------- 2 0.0 2.0 64 64
+ 1.1904 1 2 cbr 50 ------- 2 0.0 2.0 64 64
- 1.1904 1 2 cbr 50 ------- 2 0.0 2.0 64 64
r 1.1994 1 2 cbr 50 ------- 2 0.0 2.0 64 64
+ 1.2 0 1 cbr 50 ------- 2 0.0 2.0 70 70
- 1.2 0 1 cbr 50 ------- 2 0.0 2.0 70 70
r 1.2004 0 1 cbr 50 ------- 2 0.0 2.0 65 65
+ 1.2004 1 2 cbr 50 ------- 2 0.0 2.0 65 65
- 1.2004 1 2 cbr 50 ------- 2 0.0 2.0 65 65
r 1.2094 1 2 cbr 50 ------- 2 0.0 2.0 65 65
+ 1.21 0 1 cbr 50 ------- 2 0.0 2.0 71 71
- 1.21 0 1 cbr 50 ------- 2 0.0 2.0 71 71
r 1.2104 0 1 cbr 50 ------- 2 0.0 2.0 66 66
+ 1.2104 1 2 cbr 50 ------- 2 0.0 2.0 66 66
- 1.2104 1 2 cbr 50 ------- 2 0.0 2.0 66 66
r 1.2194 1 2 cbr 50 ------- 2 0.0 2.0 66 66
+ 1.22 0 1 cbr 50 ------- 2 0.0 2.0 72 72
- 1.22 0 1 cbr 50 ------- 2 0.0 2.0 72 72
r 1.2204 0 1 cbr 50 ------- 2 0.0 2.0 67 67
+ 1.2204 1 2 cbr 50 ------- 2 0.0 2.0 67 67
- 1.2204 1 2 cbr 50 ------- 2 0.0 2.0 67 67
r 1.2294 1 2 cbr 50 ------- 2 0.0 2.0 67 67
+ 1.23 0 1 cbr 50 ------- 2 0.0 2.0 73 73
- 1.23 0 1 cbr 50 ------- 2 0.0 2.0 73 73
r 1.2304 0 1 cbr 50 ------- 2 0.0 2.0 68 68
+ 1.2304 1 2 cbr 50 ------- 2 0.0 2.0 68 68
- 1.2304 1 2 cbr 50 ------- 2 0.0 2.0 68 68
r 1.2394 1 2 cbr 50 ------- 2 0.0 2.0 68 68
+ 1.24 0 1 cbr 50 ------- 2 0.0 2.0 74 74
- 1.24 0 1 cbr 50 ------- 2 0.0 2.0 74 74
r 1.2404 0 1 cbr 50 ------- 2 0.0 2.0 69 69
+ 1.2404 1 2 cbr 50 ------- 2 0.0 2.0 69 69
- 1.2404 1 2 cbr 50 ------- 2 0.0 2.0 69 69
r 1.2494 1 2 cbr 50 ------- 2 0.0 2.0 69 69
+ 1.25 0 1 cbr 50 ------- 2 0.0 2.0 75 75
- 1.25 0 1 cbr 50 ------- 2 0.0 2.0 75 75
r 1.2504 0 1 cbr 50 ------- 2 0.0 2.0 70 70
+ 1.2504 1 2 cbr 50 ------- 2 0.0 2.0 70 70
- 1.2504 1 2 cbr 50 ------- 2 0.0 2.0 70 70
r 1.2594 1 2 cbr 50 ------- 2 0.0 2.0 70 70
+ 1.26 0 1 cbr 50 ------- 2 0.0 2.0 76 76
- 1.26 0 1 cbr 50 ------- 2 0.0 2.0 76 76
r 1.2604 0 1 cbr 50 ------- 2 0.0 2.0 71 71
+ 1.2604 1 2 cbr 50 ------- 2 0.0 2.0 71 71
- 1.2604 1 2 cbr 50 ------- 2 0.0 2.0 71 71
r 1.2694 1 2 cbr 50 ------- 2 0.0 2.0 71 71
+ 1.27 0 1 cbr 50 ------- 2 0.0 2.0 77 77
- 1.27 0 1 cbr 50 ------- 2 0.0 2.0 77 77
r 1.2704 0 1 cbr 50 ------- 2 0.0 2.0 72 72
+ 1.2704 1 2 cbr 50 ------- 2 0.0 2.0 72 72
- 1.2704 1 2 cbr 50 ------- 2 0.0 2.0 72 72
r 1.2794 1 2 cbr 50 ------- 2 0.0 2.0 72 72
+ 1.28 0 1 cbr 50 ------- 2 0.0 2.0 78 78
- 1.28 0 1 cbr 50 ------- 2 0.0 2.0 78 78
r 1.2804 0 1 cbr 50 ------- 2 0.0 2.0 73 73
+ 1.2804 1 2 cbr 50 ------- 2 0.0 2.0 73 73
- 1.2804 1 2 cbr 50 ------- 2 0.0 2.0 73 73
r 1.2894 1 2 cbr 50 ------- 2 0.0 2.0 73 73
+ 1.29 0 1 cbr 50 ------- 2 0.0 2.0 79 79
- 1.29 0 1 cbr 50 ------- 2 0.0 2.0 79 79
r 1.2904 0 1 cbr 50 ------- 2 0.0 2.0 74 74
+ 1.2904 1 2 cbr 50 ------- 2 0.0 2.0 74 74
- 1.2904 1 2 cbr 50 ------- 2 0.0 2.0 74 74
r 1.2994 1 2 cbr 50 ------- 2 0.0 2.0 74 74
+ 1.3 0 1 cbr 50 ------- 2 0.0 2.0 80 80
- 1.3 0 1 cbr 50 ------- 2 0.0 2.0 80 80
r 1.3004 0 1 cbr 50 ------- 2 0.0 2.0 75 75
+ 1.3004 1 2 cbr 50 ------- 2 0.0 2.0 75 75
- 1.3004 1 2 cbr 50 ------- 2 0.0 2.0 75 75
r 1.3094 1 2 cbr 50 ------- 2 0.0 2.0 75 75
+ 1.31 0 1 cbr 50 ------- 2 0.0 2.0 81 81
- 1.31 0 1 cbr 50 ------- 2 0.0 2.0 81 81
r 1.3104 0 1 cbr 50 ------- 2 0.0 2.0 76 76
+ 1.3104 1 2 cbr 50 ------- 2 0.0 2.0 76 76
- 1.3104 1 2 cbr 50 ------- 2 0.0 2.0 76 76
r 1.3194 1 2 cbr 50 ------- 2 0.0 2.0 76 76
+ 1.32 0 1 cbr 50 ------- 2 0.0 2.0 82 82
- 1.32 0 1 cbr 50 ------- 2 0.0 2.0 82 82
r 1.3204 0 1 cbr 50 ------- 2 0.0 2.0 77 77
+ 1.3204 1 2 cbr 50 ------- 2 0.0 2.0 77 77
- 1.3204 1 2 cbr 50 ------- 2 0.0 2.0 77 77
r 1.3294 1 2 cbr 50 ------- 2 0.0 2.0 77 77
+ 1.33 0 1 cbr 50 ------- 2 0.0 2.0 83 83
- 1.33 0 1 cbr 50 ------- 2 0.0 2.0 83 83
r 1.3304 0 1 cbr 50 ------- 2 0.0 2.0 78 78
+ 1.3304 1 2 cbr 50 ------- 2 0.0 2.0 78 78
- 1.3304 1 2 cbr 50 ------- 2 0.0 2.0 78 78
r 1.3394 1 2 cbr 50 ------- 2 0.0 2.0 78 78
+ 1.34 0 1 cbr 50 ------- 2 0.0 2.0 84 84
- 1.34 0 1 cbr 50 ------- 2 0.0 2.0 84 84
r 1.3404 0 1 cbr 50 ------- 2 0.0 2.0 79 79
+ 1.3404 1 2 cbr 50 ------- 2 0.0 2.0 79 79
- 1.3404 1 2 cbr 50 ------- 2 0.0 2.0 79 79
r 1.3494 1 2 cbr 50 ------- 2 0.0 2.0 79 79
+ 1.35 0 1 cbr 50 ------- 2 0.0 2.0 85 85
- 1.35 0 1 cbr 50 ------- 2 0.0 2.0 85 85
r 1.3504 0 1 cbr 50 ------- 2 0.0 2.0 80 80
+ 1.3504 1 2 cbr 50 ------- 2 0.0 2.0 80 80
- 1.3504 1 2 cbr 50 ------- 2 0.0 2.0 80 80
r 1.3594 1 2 cbr 50 ------- 2 0.0 2.0 80 80
+ 1.36 0 1 cbr 50 ------- 2 0.0 2.0 86 86
- 1.36 0 1 cbr 50 ------- 2 0.0 2.0 86 86
r 1.3604 0 1 cbr 50 ------- 2 0.0 2.0 81 81
+ 1.3604 1 2 cbr 50 ------- 2 0.0 2.0 81 81
- 1.3604 1 2 cbr 50 ------- 2 0.0 2.0 81 81
r 1.3694 1 2 cbr 50 ------- 2 0.0 2.0 81 81
+ 1.37 0 1 cbr 50 ------- 2 0.0 2.0 87 87
- 1.37 0 1 cbr 50 ------- 2 0.0 2.0 87 87
r 1.3704 0 1 cbr 50 ------- 2 0.0 2.0 82 82
+ 1.3704 1 2 cbr 50 ------- 2 0.0 2.0 82 82
- 1.3704 1 2 cbr 50 ------- 2 0.0 2.0 82 82
r 1.3794 1 2 cbr 50 ------- 2 0.0 2.0 82 82
+ 1.38 0 1 cbr 50 ------- 2 0.0 2.0 88 88
- 1.38 0 1 cbr 50 ------- 2 0.0 2.0 88 88
r 1.3804 0 1 cbr 50 ------- 2 0.0 2.0 83 83
+ 1.3804 1 2 cbr 50 ------- 2 0.0 2.0 83 83
- 1.3804 1 2 cbr 50 ------- 2 0.0 2.0 83 83
r 1.3894 1 2 cbr 50 ------- 2 0.0 2.0 83 83
+ 1.39 0 1 cbr 50 ------- 2 0.0 2.0 89 89
- 1.39 0 1 cbr 50 ------- 2 0.0 2.0 89 89
r 1.3904 0 1 cbr 50 ------- 2 0.0 2.0 84 84
+ 1.3904 1 2 cbr 50 ------- 2 0.0 2.0 84 84
- 1.3904 1 2 cbr 50 ------- 2 0.0 2.0 84 84
r 1.3994 1 2 cbr 50 ------- 2 0.0 2.0 84 84
+ 1.4 0 1 cbr 50 ------- 2 0.0 2.0 90 90
- 1.4 0 1 cbr 50 ------- 2 0.0 2.0 90 90
r 1.4004 0 1 cbr 50 ------- 2 0.0 2.0 85 85
+ 1.4004 1 2 cbr 50 ------- 2 0.0 2.0 85 85
- 1.4004 1 2 cbr 50 ------- 2 0.0 2.0 85 85
r 1.4094 1 2 cbr 50 ------- 2 0.0 2.0 85 85
+ 1.41 0 1 cbr 50 ------- 2 0.0 2.0 91 91
- 1.41 0 1 cbr 50 ------- 2 0.0 2.0 91 91
r 1.4104 0 1 cbr 50 ------- 2 0.0 2.0 86 86
+ 1.4104 1 2 cbr 50 ------- 2 0.0 2.0 86 86
- 1.4104 1 2 cbr 50 ------- 2 0.0 2.0 86 86
r 1.4194 1 2 cbr 50 ------- 2 0.0 2.0 86 86
+ 1.42 0 1 cbr 50 ------- 2 0.0 2.0 92 92
- 1.42 0 1 cbr 50 ------- 2 0.0 2.0 92 92
r 1.4204 0 1 cbr 50 ------- 2 0.0 2.0 87 87
+ 1.4204 1 2 cbr 50 ------- 2 0.0 2.0 87 87
- 1.4204 1 2 cbr 50 ------- 2 0.0 2.0 87 87
r 1.4294 1 2 cbr 50 ------- 2 0.0 2.0 87 87
+ 1.43 0 1 cbr 50 ------- 2 0.0 2.0 93 93
- 1.43 0 1 cbr 50 ------- 2 0.0 2.0 93 93
r 1.4304 0 1 cbr 50 ------- 2 0.0 2.0 88 88
+ 1.4304 1 2 cbr 50 ------- 2 0.0 2.0 88 88
- 1.4304 1 2 cbr 50 ------- 2 0.0 2.0 88 88
r 1.4394 1 2 cbr 50 ------- 2 0.0 2.0 88 88
+ 1.44 0 1 cbr 50 ------- 2 0.0 2.0 94 94
- 1.44 0 1 cbr 50 ------- 2 0.0 2.0 94 94
r 1.4404 0 1 cbr 50 ------- 2 0.0 2.0 89 89
+ 1.4404 1 2 cbr 50 ------- 2 0.0 2.0 89 89
- 1.4404 1 2 cbr 50 ------- 2 0.0 2.0 89 89
r 1.4494 1 2 cbr 50 ------- 2 0.0 2.0 89 89
+ 1.45 0 1 cbr 50 ------- 2 0.0 2.0 95 95
- 1.45 0 1 cbr 50 ------- 2 0.0 2.0 95 95
r 1.4504 0 1 cbr 50 ------- 2 0.0 2.0 90 90
+ 1.4504 1 2 cbr 50 ------- 2 0.0 2.0 90 90
- 1.4504 1 2 cbr 50 ------- 2 0.0 2.0 90 90
r 1.4594 1 2 cbr 50 ------- 2 0.0 2.0 90 90
+ 1.46 0 1 cbr 50 ------- 2 0.0 2.0 96 96
- 1.46 0 1 cbr 50 ------- 2 0.0 2.0 96 96
r 1.4604 0 1 cbr 50 ------- 2 0.0 2.0 91 91
+ 1.4604 1 2 cbr 50 ------- 2 0.0 2.0 91 91
- 1.4604 1 2 cbr 50 ------- 2 0.0 2.0 91 91
r 1.4694 1 2 cbr 50 ------- 2 0.0 2.0 91 91
+ 1.47 0 1 cbr 50 ------- 2 0.0 2.0 97 97
- 1.47 0 1 cbr 50 ------- 2 0.0 2.0 97 97
r 1.4704 0 1 cbr 50 ------- 2 0.0 2.0 92 92
+ 1.4704 1 2 cbr 50 ------- 2 0.0 2.0 92 92
- 1.4704 1 2 cbr 50 ------- 2 0.0 2.0 92 92
r 1.4794 1 2 cbr 50 ------- 2 0.0 2.0 92 92
+ 1.48 0 1 cbr 50 ------- 2 0.0 2.0 98 98
- 1.48 0 1 cbr 50 ------- 2 0.0 2.0 98 98
r 1.4804 0 1 cbr 50 ------- 2 0.0 2.0 93 93
+ 1.4804 1 2 cbr 50 ------- 2 0.0 2.0 93 93
- 1.4804 1 2 cbr 50 ------- 2 0.0 2.0 93 93
r 1.4894 1 2 cbr 50 ------- 2 0.0 2.0 93 93
+ 1.49 0 1 cbr 50 ------- 2 0.0 2.0 99 99
- 1.49 0 1 cbr 50 ------- 2 0.0 2.0 99 99
r 1.4904 0 1 cbr 50 ------- 2 0.0 2.0 94 94
+ 1.4904 1 2 cbr 50 ------- 2 0.0 2.0 94 94
- 1.4904 1 2 cbr 50 ------- 2 0.0 2.0 94 94
r 1.4994 1 2 cbr 50 ------- 2 0.0 2.0 94 94
+ 1.5 0 1 cbr 50 ------- 2 0.0 2.0 100 100
- 1.5 0 1 cbr 50 ------- 2 0.0 2.0 100 100
r 1.5004 0 1 cbr 50 ------- 2 0.0 2.0 95 95
+ 1.5004 1 2 cbr 50 ------- 2 0.0 2.0 95 95
- 1.5004 1 2 cbr 50 ------- 2 0.0 2.0 95 95
r 1.5094 1 2 cbr 50 ------- 2 0.0 2.0 95 95
+ 1.51 0 1 cbr 50 ------- 2 0.0 2.0 101 101
- 1.51 0 1 cbr 50 ------- 2 0.0 2.0 101 101
r 1.5104 0 1 cbr 50 ------- 2 0.0 2.0 96 96
+ 1.5104 1 2 cbr 50 ------- 2 0.0 2.0 96 96
- 1.5104 1 2 cbr 50 ------- 2 0.0 2.0 96 96
r 1.5194 1 2 cbr 50 ------- 2 0.0 2.0 96 96
+ 1.52 0 1 cbr 50 ------- 2 0.0 2.0 102 102
- 1.52 0 1 cbr 50 ------- 2 0.0 2.0 102 102
r 1.5204 0 1 cbr 50 ------- 2 0.0 2.0 97 97
+ 1.5204 1 2 cbr 50 ------- 2 0.0 2.0 97 97
- 1.5204 1 2 cbr 50 ------- 2 0.0 2.0 97 97
r 1.5294 1 2 cbr 50 ------- 2 0.0 2.0 97 97
+ 1.53 0 1 cbr 50 ------- 2 0.0 2.0 103 103
- 1.53 0 1 cbr 50 ------- 2 0.0 2.0 103 103
r 1.5304 0 1 cbr 50 ------- 2 0.0 2.0 98 98
+ 1.5304 1 2 cbr 50 ------- 2 0.0 2.0 98 98
- 1.5304 1 2 cbr 50 ------- 2 0.0 2.0 98 98
r 1.5394 1 2 cbr 50 ------- 2 0.0 2.0 98 98
+ 1.54 0 1 cbr 50 ------- 2 0.0 2.0 104 104
- 1.54 0 1 cbr 50 ------- 2 0.0 2.0 104 104
r 1.5404 0 1 cbr 50 ------- 2 0.0 2.0 99 99
+ 1.5404 1 2 cbr 50 ------- 2 0.0 2.0 99 99
- 1.5404 1 2 cbr 50 ------- 2 0.0 2.0 99 99
r 1.5494 1 2 cbr 50 ------- 2 0.0 2.0 99 99
+ 1.55 0 1 cbr 50 ------- 2 0.0 2.0 105 105
- 1.55 0 1 cbr 50 ------- 2 0.0 2.0 105 105
r 1.5504 0 1 cbr 50 ------- 2 0.0 2.0 100 100
+ 1.5504 1 2 cbr 50 ------- 2 0.0 2.0 100 100
- 1.5504 1 2 cbr 50 ------- 2 0.0 2.0 100 100
r 1.5594 1 2 cbr 50 ------- 2 0.0 2.0 100 100
+ 1.56 0 1 cbr 50 ------- 2 0.0 2.0 106 106
- 1.56 0 1 cbr 50 ------- 2 0.0 2.0 106 106
r 1.5604 0 1 cbr 50 ------- 2 0.0 2.0 101 101
+ 1.5604 1 2 cbr 50 ------- 2 0.0 2.0 101 101
- 1.5604 1 2 cbr 50 ------- 2 0.0 2.0 101 101
r 1.5694 1 2 cbr 50 ------- 2 0.0 2.0 101 101
+ 1.57 0 1 cbr 50 ------- 2 0.0 2.0 107 107
- 1.57 0 1 cbr 50 ------- 2 0.0 2.0 107 107
r 1.5704 0 1 cbr 50 ------- 2 0.0 2.0 102 102
+ 1.5704 1 2 cbr 50 ------- 2 0.0 2.0 102 102
- 1.5704 1 2 cbr 50 ------- 2 0.0 2.0 102 102
r 1.5794 1 2 cbr 50 ------- 2 0.0 2.0 102 102
+ 1.58 0 1 cbr 50 ------- 2 0.0 2.0 108 108
- 1.58 0 1 cbr 50 ------- 2 0.0 2.0 108 108
r 1.5804 0 1 cbr 50 ------- 2 0.0 2.0 103 103
+ 1.5804 1 2 cbr 50 ------- 2 0.0 2.0 103 103
- 1.5804 1 2 cbr 50 ------- 2 0.0 2.0 103 103
r 1.5894 1 2 cbr 50 ------- 2 0.0 2.0 103 103
+ 1.59 0 1 cbr 50 ------- 2 0.0 2.0 109 109
- 1.59 0 1 cbr 50 ------- 2 0.0 2.0 109 109
r 1.5904 0 1 cbr 50 ------- 2 0.0 2.0 104 104
+ 1.5904 1 2 cbr 50 ------- 2 0.0 2.0 104 104
- 1.5904 1 2 cbr 50 ------- 2 0.0 2.0 104 104
r 1.5994 1 2 cbr 50 ------- 2 0.0 2.0 104 104
+ 1.6 0 1 cbr 50 ------- 2 0.0 2.0 110 110
- 1.6 0 1 cbr 50 ------- 2 0.0 2.0 110 110
r 1.6004 0 1 cbr 50 ------- 2 0.0 2.0 105 105
+ 1.6004 1 2 cbr 50 ------- 2 0.0 2.0 105 105
- 1.6004 1 2 cbr 50 ------- 2 0.0 2.0 105 105
r 1.6094 1 2 cbr 50 ------- 2 0.0 2.0 105 105
+ 1.61 0 1 cbr 50 ------- 2 0.0 2.0 111 111
- 1.61 0 1 cbr 50 ------- 2 0.0 2.0 111 111
r 1.6104 0 1 cbr 50 ------- 2 0.0 2.0 106 106
+ 1.6104 1 2 cbr 50 ------- 2 0.0 2.0 106 106
- 1.6104 1 2 cbr 50 ------- 2 0.0 2.0 106 106
r 1.6194 1 2 cbr 50 ------- 2 0.0 2.0 106 106
+ 1.62 0 1 cbr 50 ------- 2 0.0 2.0 112 112
- 1.62 0 1 cbr 50 ------- 2 0.0 2.0 112 112
r 1.6204 0 1 cbr 50 ------- 2 0.0 2.0 107 107
+ 1.6204 1 2 cbr 50 ------- 2 0.0 2.0 107 107
- 1.6204 1 2 cbr 50 ------- 2 0.0 2.0 107 107
r 1.6294 1 2 cbr 50 ------- 2 0.0 2.0 107 107
+ 1.63 0 1 cbr 50 ------- 2 0.0 2.0 113 113
- 1.63 0 1 cbr 50 ------- 2 0.0 2.0 113 113
r 1.6304 0 1 cbr 50 ------- 2 0.0 2.0 108 108
+ 1.6304 1 2 cbr 50 ------- 2 0.0 2.0 108 108
- 1.6304 1 2 cbr 50 ------- 2 0.0 2.0 108 108
r 1.6394 1 2 cbr 50 ------- 2 0.0 2.0 108 108
+ 1.64 0 1 cbr 50 ------- 2 0.0 2.0 114 114
- 1.64 0 1 cbr 50 ------- 2 0.0 2.0 114 114
r 1.6404 0 1 cbr 50 ------- 2 0.0 2.0 109 109
+ 1.6404 1 2 cbr 50 ------- 2 0.0 2.0 109 109
- 1.6404 1 2 cbr 50 ------- 2 0.0 2.0 109 109
r 1.6494 1 2 cbr 50 ------- 2 0.0 2.0 109 109
+ 1.65 0 1 cbr 50 ------- 2 0.0 2.0 115 115
- 1.65 0 1 cbr 50 ------- 2 0.0 2.0 115 115
r 1.6504 0 1 cbr 50 ------- 2 0.0 2.0 110 110
+ 1.6504 1 2 cbr 50 ------- 2 0.0 2.0 110 110
- 1.6504 1 2 cbr 50 ------- 2 0.0 2.0 110 110
r 1.6594 1 2 cbr 50 ------- 2 0.0 2.0 110 110
+ 1.66 0 1 cbr 50 ------- 2 0.0 2.0 116 116
- 1.66 0 1 cbr 50 ------- 2 0.0 2.0 116 116
r 1.6604 0 1 cbr 50 ------- 2 0.0 2.0 111 111
+ 1.6604 1 2 cbr 50 ------- 2 0.0 2.0 111 111
- 1.6604 1 2 cbr 50 ------- 2 0.0 2.0 111 111
r 1.6694 1 2 cbr 50 ------- 2 0.0 2.0 111 111
+ 1.67 0 1 cbr 50 ------- 2 0.0 2.0 117 117
- 1.67 0 1 cbr 50 ------- 2 0.0 2.0 117 117
r 1.6704 0 1 cbr 50 ------- 2 0.0 2.0 112 112
+ 1.6704 1 2 cbr 50 ------- 2 0.0 2.0 112 112
- 1.6704 1 2 cbr 50 ------- 2 0.0 2.0 112 112
r 1.6794 1 2 cbr 50 ------- 2 0.0 2.0 112 112
+ 1.68 0 1 cbr 50 ------- 2 0.0 2.0 118 118
- 1.68 0 1 cbr 50 ------- 2 0.0 2.0 118 118
r 1.6804 0 1 cbr 50 ------- 2 0.0 2.0 113 113